/*--------------------------------*- C++ -*----------------------------------*\
  =========                 |
  \\      /  F ield         | OpenFOAM: The Open Source CFD Toolbox
   \\    /   O peration     | Website:  https://openfoam.org
    \\  /    A nd           | Version:  10
     \\/     M anipulation  |
\*---------------------------------------------------------------------------*/
FoamFile
{
    format      ascii;
    class       volScalarField;
    location    "0.010225";
    object      nut;
}
// * * * * * * * * * * * * * * * * * * * * * * * * * * * * * * * * * * * * * //

dimensions      [0 2 -1 0 0 0 0];

internalField   nonuniform List<scalar> 
344916
(
0
0
0
0
0
0
0
0
0
0
0
0
0
0
0
0
0
0
0
0
0
0
0
0
0
0
4.2833e-318
3.29034e-300
2.48162e-282
1.81363e-264
1.26679e-246
8.22851e-229
4.80182e-211
2.37816e-193
9.26164e-176
2.53782e-158
4.24273e-141
3.60904e-124
1.26876e-107
1.47124e-91
4.48803e-76
2.90564e-61
3.26677e-47
5.28881e-34
1.08877e-21
4.7809e-10
0.00228972
0.0847501
0.185621
0.172874
0
0
0
0
0
0
0
0
0
0
0
0
0
0
0
0
0
0
0
0
0
0
0
0
0
0
8.32837e-318
6.41545e-300
4.85189e-282
3.55846e-264
2.49453e-246
1.62777e-228
9.54456e-211
4.75452e-193
1.8627e-175
5.13879e-158
8.64753e-141
7.40439e-124
2.61687e-107
3.04682e-91
9.30657e-76
6.01734e-61
6.72051e-47
1.07671e-33
2.17425e-21
1.02589e-09
0.00265248
0.0893932
0.187755
0.174109
0
0
0
0
0
0
0
0
0
0
0
0
0
0
0
0
0
0
0
0
0
0
0
0
0
0
1.56667e-317
1.20977e-299
9.17103e-282
6.74768e-264
4.74523e-246
3.1093e-228
1.83094e-210
9.16809e-193
3.61061e-175
1.00199e-157
1.6953e-140
1.45905e-123
5.17438e-107
6.03435e-91
1.83967e-75
1.18313e-60
1.30546e-46
2.05549e-33
4.03487e-21
2.04004e-09
0.00303469
0.093921
0.189806
0.175438
0
0
0
0
0
0
0
0
0
0
0
0
0
0
0
0
0
0
0
0
0
0
0
0
0
0
3.05167e-317
2.36199e-299
1.79458e-281
1.32436e-263
9.34162e-246
6.14497e-228
3.63283e-210
1.82774e-192
7.23187e-175
2.01713e-157
3.42774e-140
2.96094e-123
1.0517e-106
1.22555e-90
3.71849e-75
2.37025e-60
2.57388e-46
3.96579e-33
7.5444e-21
4.09582e-09
0.00346037
0.0981955
0.191752
0.176799
0
0
0
0
0
0
0
0
0
0
0
0
0
0
0
0
0
0
0
0
0
0
0
0
0
0
6.22538e-317
4.82872e-299
3.67663e-281
2.72076e-263
1.92455e-245
1.27041e-227
7.53751e-210
3.80795e-192
1.51269e-174
4.23614e-157
7.22045e-140
6.24892e-123
2.21838e-106
2.57634e-90
7.75737e-75
4.8849e-60
5.20417e-46
7.82165e-33
1.44154e-20
8.43495e-09
0.00394098
0.102107
0.193551
0.178123
0
0
0
0
0
0
0
0
0
0
0
0
0
0
0
0
0
0
0
0
0
0
0
0
0
0
1.21581e-316
9.45171e-299
7.21303e-281
5.3529e-263
3.79717e-245
2.51519e-227
1.49744e-209
7.59418e-192
3.02738e-174
8.5061e-157
1.45296e-139
1.25828e-122
4.45801e-106
5.15077e-90
1.53628e-74
9.53824e-60
9.95372e-46
1.45767e-32
2.60624e-20
1.63724e-08
0.00442754
0.105524
0.195142
0.179338
0
0
0
0
0
0
0
0
0
0
0
0
0
0
0
0
0
0
0
0
0
0
0
0
0
0
2.06192e-316
1.60604e-298
1.22797e-280
9.13486e-263
6.49538e-245
4.31503e-227
2.57618e-209
1.31057e-191
5.2383e-174
1.47522e-156
2.52234e-139
2.18293e-122
7.70722e-106
8.84601e-90
2.60953e-74
1.59531e-59
1.62915e-45
2.3233e-32
4.02747e-20
2.69471e-08
0.0048567
0.108349
0.196468
0.180375
0
0
0
0
0
0
0
0
0
0
0
0
0
0
0
0
0
0
0
0
0
0
0
0
0
0
2.95513e-316
2.30597e-298
1.76628e-280
1.3169e-262
9.38472e-245
6.25153e-227
3.74218e-209
1.90935e-191
7.65093e-174
2.15962e-156
3.6966e-139
3.19839e-122
1.12625e-105
1.28578e-89
3.7591e-74
2.26947e-59
2.27731e-45
3.17966e-32
5.37928e-20
3.75808e-08
0.00516786
0.110398
0.197439
0.181158
0
0
0
0
0
0
0
0
0
0
0
0
0
0
0
0
0
0
0
0
0
0
0
0
0
0
3.60293e-316
2.81453e-298
2.1581e-280
1.61137e-262
1.14997e-244
7.67481e-227
4.60277e-209
2.35354e-191
9.44916e-174
2.67218e-156
4.57876e-139
3.96214e-122
1.39287e-105
1.58446e-89
4.60297e-74
2.75411e-59
2.72888e-45
3.75276e-32
6.234e-20
4.53961e-08
0.00539743
0.111722
0.198022
0.181655
0
0
0
0
0
0
0
0
0
0
0
0
0
0
0
0
0
0
0
0
0
0
0
0
0
0
3.84997e-316
3.01183e-298
2.3135e-280
1.73081e-262
1.23818e-244
8.28592e-227
4.98529e-209
2.55826e-191
1.0313e-173
2.92922e-156
5.04279e-139
4.38398e-122
1.54822e-105
1.76841e-89
5.15663e-74
3.09506e-59
3.07625e-45
4.24474e-32
7.10586e-20
5.29746e-08
0.00550297
0.112083
0.198129
0.18179
0
0
0
0
0
0
0
0
0
0
0
0
0
0
0
0
0
0
0
0
0
0
0
0
0
0
3.1591e-316
2.47322e-298
1.90188e-280
1.42464e-262
1.02095e-244
6.84615e-227
4.13011e-209
2.12608e-191
8.60501e-174
2.45533e-156
4.25028e-139
3.71783e-122
1.32222e-105
1.52177e-89
4.47501e-74
2.71037e-59
2.7227e-45
3.80116e-32
6.46143e-20
4.87591e-08
0.00544085
0.111652
0.197804
0.181591
0
0
0
0
0
0
0
0
0
0
0
0
0
0
0
0
0
0
0
0
0
0
0
0
0
0
2.1021e-316
1.64564e-298
1.26622e-280
9.49021e-263
6.81041e-245
4.57405e-227
2.76678e-209
1.42883e-191
5.80965e-174
1.66695e-156
2.90704e-139
2.56544e-122
9.22553e-106
1.07556e-89
3.21265e-74
1.98069e-59
2.03404e-45
2.91179e-32
5.11554e-20
3.8868e-08
0.00524441
0.110385
0.197045
0.181059
0
0
0
0
0
0
0
0
0
0
0
0
0
0
0
0
0
0
0
0
0
0
0
0
0
0
1.15512e-316
9.04774e-299
6.96942e-281
5.22953e-263
3.75996e-245
2.53089e-227
1.53604e-209
7.96461e-192
3.25669e-174
9.4101e-157
1.65634e-139
1.47856e-122
5.39429e-106
6.39874e-90
1.95189e-74
1.2334e-59
1.30548e-45
1.93547e-32
3.54696e-20
2.64095e-08
0.00489369
0.108184
0.195838
0.180193
0
0
0
0
0
0
0
0
0
0
0
0
0
0
0
0
0
0
0
0
0
0
0
0
0
0
5.47999e-317
4.29686e-299
3.31424e-281
2.49077e-263
1.79451e-245
1.211e-227
7.37455e-210
3.84018e-192
1.57899e-174
4.595e-157
8.16197e-140
7.36958e-123
2.72688e-106
3.29028e-90
1.02426e-74
6.63015e-60
7.21875e-46
1.10556e-32
2.09647e-20
1.46895e-08
0.00440785
0.105237
0.194287
0.179079
0
0
0
0
0
0
0
0
0
0
0
0
0
0
0
0
0
0
0
0
0
0
0
0
0
0
2.38328e-317
1.8692e-299
1.44276e-281
1.08513e-263
7.82927e-246
5.29261e-228
3.23183e-210
1.68873e-192
6.97774e-175
2.0433e-157
3.66006e-140
3.33992e-123
1.25272e-106
1.53683e-90
4.88302e-75
3.23927e-60
3.6374e-46
5.77725e-33
1.14251e-20
7.53828e-09
0.00391562
0.101645
0.19245
0.177775
0
0
0
0
0
0
0
0
0
0
0
0
0
0
0
0
0
0
0
0
0
0
0
0
0
0
9.96744e-318
7.81732e-300
6.03748e-282
4.54302e-264
3.28196e-246
2.22153e-228
1.35976e-210
7.12511e-193
2.95677e-175
8.70464e-158
1.5709e-140
1.44695e-123
5.49468e-107
6.84457e-91
2.21786e-75
1.50694e-60
1.74524e-46
2.87697e-33
5.97779e-21
3.74125e-09
0.00345208
0.0975396
0.19041
0.176363
0
0
0
0
0
0
0
0
0
0
0
0
0
0
0
0
0
0
0
0
0
0
0
0
0
0
4.19795e-318
3.29186e-300
2.54346e-282
1.91429e-264
1.38429e-246
9.37828e-229
5.75123e-211
3.0199e-193
1.25758e-175
3.7175e-158
6.74947e-141
6.26381e-124
2.40317e-107
3.03176e-91
9.98937e-76
6.92872e-61
8.26035e-47
1.4111e-33
3.08288e-21
1.83452e-09
0.0030254
0.0930352
0.188232
0.174916
0
0
0
0
0
0
0
0
0
0
0
0
0
0
0
0
0
0
0
0
0
0
0
0
0
0
1.66532e-318
1.3052e-300
1.00848e-282
7.58796e-265
5.48946e-247
3.71966e-229
2.2835e-211
1.20035e-193
5.00969e-176
1.48482e-158
2.70707e-141
2.5256e-124
9.76305e-108
1.2435e-91
4.15175e-76
2.92821e-61
3.57418e-47
6.28937e-34
1.43646e-21
8.07732e-10
0.00260535
0.088246
0.185969
0.173512
0
0
0
0
0
0
0
0
0
0
0
0
0
0
0
0
0
0
0
0
0
0
0
0
0
0
6.78169e-319
5.31156e-301
4.10269e-283
3.08527e-265
2.23183e-247
1.51191e-229
9.28423e-212
4.88189e-194
2.03962e-176
6.05309e-159
1.10617e-141
1.03519e-124
4.02053e-108
5.15212e-92
1.73527e-76
1.23761e-61
1.53647e-47
2.76245e-34
6.51579e-22
3.44938e-10
0.0022251
0.0833646
0.183666
0.172224
0
0
0
0
0
0
0
0
0
0
0
0
0
0
0
0
0
0
0
0
0
0
0
0
0
0
8.48311e-321
6.48352e-303
4.87032e-285
3.54615e-267
2.47218e-249
1.605e-231
9.39372e-214
4.6847e-196
1.84992e-178
5.18501e-161
8.98199e-144
8.04341e-127
3.03879e-110
3.87739e-94
1.34035e-78
1.01663e-63
1.4013e-49
2.93216e-36
8.40382e-24
3.97811e-12
0.000873388
0.0555671
0.16679
0.163267
0
0
0
0
0
0
0
0
0
0
0
0
0
0
0
0
0
0
0
0
0
0
0
0
0
0
2.5894e-320
1.98691e-302
1.49785e-284
1.09561e-266
7.67115e-249
5.00761e-231
2.94645e-213
1.47867e-195
5.87323e-178
1.65649e-160
2.88382e-143
2.59248e-126
9.80264e-110
1.24765e-93
4.27745e-78
3.19809e-63
4.29825e-49
8.67731e-36
2.34347e-23
1.10962e-11
0.0010983
0.0621276
0.170778
0.165325
0
0
0
0
0
0
0
0
0
0
0
0
0
0
0
0
0
0
0
0
0
0
0
0
0
0
8.24596e-320
6.34756e-302
4.79975e-284
3.52471e-266
2.47721e-248
1.62481e-230
9.60427e-213
4.84567e-195
1.93401e-177
5.48158e-160
9.57554e-143
8.62394e-126
3.25541e-109
4.11996e-93
1.39555e-77
1.02377e-62
1.33418e-48
2.58163e-35
6.5392e-23
3.12357e-11
0.00137187
0.0686828
0.174486
0.167417
0
0
0
0
0
0
0
0
0
0
0
0
0
0
0
0
0
0
0
0
0
0
0
0
0
0
2.61138e-319
2.01652e-301
1.52939e-283
1.12743e-265
7.95293e-248
5.24002e-230
3.11081e-212
1.57715e-194
6.32181e-177
1.79902e-159
3.14972e-142
2.83748e-125
1.06718e-108
1.33963e-92
4.47005e-77
3.20645e-62
4.03842e-48
7.46895e-35
1.77364e-22
8.65877e-11
0.00169465
0.0750123
0.177921
0.16948
0
0
0
0
0
0
0
0
0
0
0
0
0
0
0
0
0
0
0
0
0
0
0
0
0
0
7.97881e-319
6.17946e-301
4.69996e-283
3.47685e-265
2.46091e-247
1.62805e-229
9.70236e-212
4.93967e-194
1.98681e-176
5.67024e-159
9.93576e-142
8.93657e-125
3.34154e-108
4.14991e-92
1.36052e-76
9.51673e-62
1.15595e-47
2.04076e-34
4.55497e-22
2.29901e-10
0.00206083
0.080871
0.181041
0.171433
0
0
0
0
0
0
0
0
0
0
0
0
0
0
0
0
0
0
0
0
0
0
0
0
0
0
2.20704e-318
1.71426e-300
1.30751e-282
9.70526e-265
6.89186e-247
4.57704e-229
2.73742e-211
1.39892e-193
5.64279e-176
1.61385e-158
2.82763e-141
2.53634e-124
9.41712e-108
1.15558e-91
3.71818e-76
2.53444e-61
2.97016e-47
5.01453e-34
1.05836e-21
5.561e-10
0.00244556
0.0860169
0.183763
0.173188
0
0
0
0
0
0
0
0
0
0
0
0
0
0
0
0
0
0
0
0
0
0
0
0
0
0
4.91279e-318
3.82486e-300
2.92385e-282
2.17634e-264
1.54955e-246
1.03233e-228
6.19162e-211
3.17348e-193
1.28275e-175
3.67323e-158
6.43007e-141
5.74762e-124
2.11795e-107
2.5676e-91
8.11232e-76
5.39601e-61
6.11823e-47
9.92458e-34
1.99654e-21
1.09606e-09
0.0027956
0.0902441
0.185997
0.174659
0
0
0
0
0
0
0
0
0
0
0
0
0
0
0
0
0
0
0
0
0
0
0
0
0
0
8.7862e-318
6.85629e-300
5.25305e-282
3.9207e-264
2.79894e-246
1.87046e-228
1.12509e-210
5.78401e-193
2.34334e-175
6.72152e-158
1.17649e-140
1.04929e-123
3.8449e-107
4.61779e-91
1.43841e-75
9.38717e-61
1.03743e-46
1.63229e-33
3.16901e-21
1.80432e-09
0.00307725
0.0933644
0.187644
0.175766
0
0
0
0
0
0
0
0
0
0
0
0
0
0
0
0
0
0
0
0
0
0
0
0
0
0
1.18127e-317
9.23018e-300
7.08146e-282
5.29455e-264
3.78655e-246
2.53606e-228
1.52882e-210
7.87874e-193
3.19879e-175
9.19206e-158
1.61018e-140
1.43534e-123
5.24524e-107
6.26705e-91
1.93567e-75
1.24869e-60
1.35867e-46
2.09884e-33
3.99089e-21
2.34832e-09
0.00325613
0.0953104
0.188629
0.176446
0
0
0
0
0
0
0
0
0
0
0
0
0
0
0
0
0
0
0
0
0
0
0
0
0
0
1.31511e-317
1.0293e-299
7.91199e-282
5.92834e-264
4.25024e-246
2.85463e-228
1.72639e-210
8.92861e-193
3.63918e-175
1.05004e-157
1.84697e-140
1.65278e-123
6.06002e-107
7.25859e-91
2.24525e-75
1.44886e-60
1.57537e-46
2.43068e-33
4.62358e-21
2.7784e-09
0.003348
0.09595
0.188888
0.176647
0
0
0
0
0
0
0
0
0
0
0
0
0
0
0
0
0
0
0
0
0
0
0
0
0
0
1.02893e-317
8.05993e-300
6.20307e-282
4.65442e-264
3.34345e-246
2.25084e-228
1.36537e-210
7.08711e-193
2.90179e-175
8.41775e-158
1.49023e-140
1.34338e-123
4.96732e-107
6.00503e-91
1.87674e-75
1.22474e-60
1.34909e-46
2.11146e-33
4.08832e-21
2.48717e-09
0.0032905
0.0953273
0.18842
0.176363
0
0
0
0
0
0
0
0
0
0
0
0
0
0
0
0
0
0
0
0
0
0
0
0
0
0
6.04789e-318
4.74086e-300
3.65323e-282
2.74501e-264
1.97605e-246
1.33368e-228
8.11961e-211
4.23336e-193
1.74374e-175
5.09597e-158
9.10816e-141
8.30622e-124
3.11539e-107
3.82957e-91
1.2209e-75
8.15006e-61
9.22397e-47
1.4885e-33
2.99199e-21
1.82658e-09
0.00311371
0.0934241
0.187236
0.175605
0
0
0
0
0
0
0
0
0
0
0
0
0
0
0
0
0
0
0
0
0
0
0
0
0
0
2.69512e-318
2.11353e-300
1.63024e-282
1.22634e-264
8.84565e-247
5.98481e-229
3.65732e-211
1.91597e-193
7.9453e-176
2.34204e-158
4.23455e-141
3.91792e-124
1.49667e-107
1.88098e-91
6.15952e-76
4.2426e-61
4.98796e-47
8.40986e-34
1.78056e-21
1.07252e-09
0.00281881
0.0902264
0.185371
0.174404
0
0
0
0
0
0
0
0
0
0
0
0
0
0
0
0
0
0
0
0
0
0
0
0
0
0
9.3122e-319
7.30146e-301
5.63429e-283
4.24083e-265
3.06335e-247
2.07667e-229
1.27325e-211
6.69998e-194
2.79667e-176
8.31575e-159
1.52154e-141
1.42953e-124
5.5698e-108
7.17218e-92
2.42003e-76
1.72783e-61
2.12129e-47
3.76076e-34
8.45182e-22
4.94391e-10
0.00243766
0.0858904
0.182915
0.172833
0
0
0
0
0
0
0
0
0
0
0
0
0
0
0
0
0
0
0
0
0
0
0
0
0
0
2.74113e-319
2.14848e-301
1.65843e-283
1.24877e-265
9.03257e-248
6.13385e-230
3.77277e-212
1.99364e-194
8.37542e-177
2.51166e-159
4.65063e-142
4.43728e-125
1.76414e-108
2.32935e-92
8.10934e-77
6.01229e-62
7.74552e-48
1.45431e-34
3.50535e-22
1.99832e-10
0.00204844
0.0806073
0.179961
0.170974
0
0
0
0
0
0
0
0
0
0
0
0
0
0
0
0
0
0
0
0
0
0
0
0
0
0
7.30624e-320
5.72372e-302
4.41921e-284
3.328e-266
2.41002e-248
1.63884e-230
1.01091e-212
5.36173e-195
2.26585e-177
6.8478e-160
1.28209e-142
1.24109e-125
5.03049e-109
6.80614e-93
2.44512e-77
1.88447e-62
2.54961e-48
5.0809e-35
1.32648e-22
7.45591e-11
0.00168502
0.0746091
0.176614
0.168917
0
0
0
0
0
0
0
0
0
0
0
0
0
0
0
0
0
0
0
0
0
0
0
0
0
0
1.83348e-320
1.43526e-302
1.10811e-284
8.34335e-267
6.04685e-249
4.11543e-231
2.54437e-213
1.35337e-195
5.74761e-178
1.74825e-160
3.30467e-143
3.23931e-126
1.33569e-109
1.84684e-93
6.82549e-78
5.45075e-63
7.74298e-49
1.64004e-35
4.65688e-23
2.61358e-11
0.00136129
0.0681343
0.17296
0.166755
0
0
0
0
0
0
0
0
0
0
0
0
0
0
0
0
0
0
0
0
0
0
0
0
0
0
4.37742e-321
3.4244e-303
2.64373e-285
1.98984e-267
1.44308e-249
9.82668e-232
6.08675e-214
3.24483e-196
1.38378e-178
4.23155e-161
8.06419e-144
7.98953e-127
3.34399e-110
4.71381e-94
1.78789e-78
1.47559e-63
2.19159e-49
4.91419e-36
1.51766e-23
8.60135e-12
0.00108042
0.0614302
0.169055
0.164579
0
0
0
0
0
0
0
0
0
0
0
0
0
0
0
0
0
0
0
0
0
0
0
0
0
0
1.11659e-321
8.71336e-304
6.72028e-286
5.05169e-268
3.66183e-250
2.49191e-232
1.5442e-214
8.23752e-197
3.52079e-179
1.07996e-161
2.06934e-144
2.06557e-127
8.74245e-111
1.25068e-94
4.84206e-79
4.10429e-64
6.33569e-50
1.49452e-36
4.98821e-24
2.88452e-12
0.000852956
0.0547316
0.164901
0.162457
0
0
0
0
0
0
0
0
0
0
0
0
0
0
0
0
0
0
0
0
0
0
0
0
0
0
1.4822e-323
1.00584e-305
7.54677e-288
5.49251e-270
3.83349e-252
2.49649e-234
1.47062e-216
7.41567e-199
2.98238e-181
8.59616e-164
1.55246e-146
1.47464e-129
6.04129e-113
8.57759e-97
3.40492e-81
3.07629e-66
5.30001e-52
1.46978e-38
6.06109e-26
3.74553e-14
0.000299581
0.0314402
0.145672
0.153193
0
0
0
0
0
0
0
0
0
0
0
0
0
0
0
0
0
0
0
0
0
0
0
0
0
0
5.43472e-323
4.31822e-305
3.25028e-287
2.3756e-269
1.66445e-251
1.08932e-233
6.44606e-216
3.2678e-198
1.31987e-180
3.81994e-163
6.91053e-146
6.55935e-129
2.67178e-112
3.74977e-96
1.45797e-80
1.27696e-65
2.09621e-51
5.43416e-38
2.01527e-25
1.14052e-13
0.000397126
0.037545
0.151659
0.156092
0
0
0
0
0
0
0
0
0
0
0
0
0
0
0
0
0
0
0
0
0
0
0
0
0
0
2.66795e-322
2.05278e-304
1.54863e-286
1.13549e-268
7.9784e-251
5.24123e-233
3.11192e-215
1.58346e-197
6.41291e-180
1.85973e-162
3.3621e-145
3.17922e-128
1.28292e-111
1.77214e-95
6.71628e-80
5.67006e-65
8.8159e-51
2.12331e-37
7.06756e-25
3.7175e-13
0.00053186
0.0443841
0.157182
0.158975
0
0
0
0
0
0
0
0
0
0
0
0
0
0
0
0
0
0
0
0
0
0
0
0
0
0
1.25987e-321
9.68864e-304
7.32736e-286
5.39009e-268
3.79855e-250
2.50466e-232
1.49195e-214
7.61805e-197
3.09234e-179
8.97885e-162
1.62056e-144
1.52452e-127
6.08403e-111
8.25332e-95
3.04118e-79
2.46841e-64
3.62893e-50
8.1218e-37
2.43914e-24
1.22518e-12
0.000709559
0.0516579
0.162284
0.161782
0
0
0
0
0
0
0
0
0
0
0
0
0
0
0
0
0
0
0
0
0
0
0
0
0
0
5.58294e-321
4.30735e-303
3.26624e-285
2.41067e-267
1.7041e-249
1.12776e-231
6.739e-214
3.45197e-196
1.40382e-178
4.07844e-161
7.34166e-144
6.86187e-127
2.70397e-110
3.59607e-94
1.28649e-78
1.00293e-63
1.39476e-49
2.90826e-36
7.95156e-24
3.90974e-12
0.000930873
0.058848
0.166905
0.164415
0
0
0
0
0
0
0
0
0
0
0
0
0
0
0
0
0
0
0
0
0
0
0
0
0
0
2.15413e-320
1.66741e-302
1.26783e-284
9.38816e-267
6.657e-249
4.42121e-231
2.64984e-213
1.36129e-195
5.54438e-178
1.61083e-160
2.89044e-143
2.68229e-126
1.04316e-109
1.35975e-93
4.7248e-78
3.54301e-63
4.67667e-49
9.14298e-36
2.30461e-23
1.13341e-11
0.00118293
0.0654225
0.170929
0.166766
0
0
0
0
0
0
0
0
0
0
0
0
0
0
0
0
0
0
0
0
0
0
0
0
0
0
6.47424e-320
5.0249e-302
3.83092e-284
2.84577e-266
2.02385e-248
1.34864e-230
8.1063e-213
4.1758e-195
1.70313e-177
4.94816e-160
8.85219e-143
8.16033e-126
3.13543e-109
4.01323e-93
1.35855e-77
9.8438e-63
1.24205e-48
2.29998e-35
5.4296e-23
2.71349e-11
0.00143403
0.070941
0.174222
0.168727
0
0
0
0
0
0
0
0
0
0
0
0
0
0
0
0
0
0
0
0
0
0
0
0
0
0
1.44198e-319
1.12193e-301
8.57354e-284
6.38639e-266
4.55388e-248
3.04377e-230
1.8344e-212
9.47397e-195
3.87008e-177
1.12491e-159
2.00849e-142
1.84245e-125
7.01381e-109
8.8513e-93
2.93617e-77
2.07186e-62
2.52552e-48
4.49002e-35
1.01066e-22
5.1629e-11
0.00164868
0.0750811
0.176652
0.170196
0
0
0
0
0
0
0
0
0
0
0
0
0
0
0
0
0
0
0
0
0
0
0
0
0
0
2.24988e-319
1.75388e-301
1.34298e-283
1.00277e-265
7.16782e-248
4.80439e-230
2.90342e-212
1.50379e-194
6.15748e-177
1.79302e-159
3.20271e-142
2.93382e-125
1.11216e-108
1.39321e-92
4.56939e-77
3.17569e-62
3.79463e-48
6.5908e-35
1.44477e-22
7.55503e-11
0.00179335
0.0776673
0.178114
0.171093
0
0
0
0
0
0
0
0
0
0
0
0
0
0
0
0
0
0
0
0
0
0
0
0
0
0
2.54409e-319
1.98605e-301
1.52322e-283
1.13954e-265
8.16365e-248
5.48588e-230
3.32501e-212
1.72784e-194
7.10007e-177
2.07522e-159
3.72005e-142
3.41865e-125
1.29905e-108
1.62943e-92
5.34361e-77
3.70778e-62
4.41666e-48
7.64128e-35
1.66904e-22
8.88141e-11
0.00185486
0.0785612
0.178539
0.171362
0
0
0
0
0
0
0
0
0
0
0
0
0
0
0
0
0
0
0
0
0
0
0
0
0
0
1.89524e-319
1.48105e-301
1.13752e-283
8.52437e-266
6.12046e-248
4.12404e-230
2.50829e-212
1.30893e-194
5.40693e-177
1.59026e-159
2.87222e-142
2.66243e-125
1.02178e-108
1.29576e-92
4.3016e-77
3.02502e-62
3.65849e-48
6.43507e-35
1.43377e-22
7.7233e-11
0.00180829
0.0777506
0.177908
0.170985
0
0
0
0
0
0
0
0
0
0
0
0
0
0
0
0
0
0
0
0
0
0
0
0
0
0
9.62934e-320
7.52987e-302
5.79035e-284
4.34557e-266
3.12714e-248
2.11307e-230
1.29035e-212
6.76793e-195
2.81501e-177
8.35162e-160
1.52555e-142
1.43391e-125
5.5984e-109
7.2454e-93
2.46401e-77
1.78113e-62
2.22519e-48
4.05964e-35
9.44462e-23
5.12394e-11
0.00166602
0.0752314
0.176243
0.16998
0
0
0
0
0
0
0
0
0
0
0
0
0
0
0
0
0
0
0
0
0
0
0
0
0
0
3.36162e-320
2.62907e-302
2.02347e-284
1.52022e-266
1.09623e-248
7.42735e-231
4.55473e-213
2.40227e-195
1.0072e-177
3.0195e-160
5.59387e-143
5.35278e-126
2.13808e-109
2.8448e-93
1.00042e-77
7.52102e-63
9.85164e-49
1.8975e-35
4.70549e-23
2.55548e-11
0.0014433
0.0710479
0.173605
0.168396
0
0
0
0
0
0
0
0
0
0
0
0
0
0
0
0
0
0
0
0
0
0
0
0
0
0
8.4337e-321
6.59519e-303
5.07889e-285
3.81877e-267
2.75895e-249
1.87406e-231
1.15418e-213
6.12269e-196
2.58906e-178
7.85079e-161
1.47746e-143
1.44286e-126
5.91699e-110
8.13294e-94
2.97743e-78
2.34893e-63
3.26028e-49
6.71556e-36
1.80695e-23
9.83383e-12
0.00117893
0.065425
0.170104
0.166317
0
0
0
0
0
0
0
0
0
0
0
0
0
0
0
0
0
0
0
0
0
0
0
0
0
0
1.70947e-321
1.33732e-303
1.03053e-285
7.75462e-268
5.61355e-250
3.82296e-232
2.36486e-214
1.26194e-196
5.38365e-179
1.65182e-161
3.16006e-144
3.15282e-127
1.32967e-110
1.89265e-94
7.23649e-79
6.01657e-64
8.92799e-50
1.99145e-36
5.90923e-24
3.27106e-12
0.000923801
0.0587344
0.165869
0.163847
0
0
0
0
0
0
0
0
0
0
0
0
0
0
0
0
0
0
0
0
0
0
0
0
0
0
3.0138e-322
2.37402e-304
1.83083e-286
1.37881e-268
1.00017e-250
6.82837e-233
4.24257e-215
2.27691e-197
9.79837e-180
3.04109e-162
5.91283e-145
6.0257e-128
2.61376e-111
3.85532e-95
1.54286e-79
1.35698e-64
2.15963e-50
5.24668e-37
1.74458e-24
1.00638e-12
0.000703671
0.0514542
0.161044
0.161099
0
0
0
0
0
0
0
0
0
0
0
0
0
0
0
0
0
0
0
0
0
0
0
0
0
0
4.94066e-323
3.89954e-305
3.00995e-287
2.26872e-269
1.64904e-251
1.12848e-233
7.04077e-216
3.7986e-198
1.64796e-180
5.16925e-163
1.02032e-145
1.06051e-128
4.72376e-112
7.20566e-96
3.01111e-80
2.79611e-65
4.78694e-51
1.27461e-37
4.80148e-25
2.96606e-13
0.000526547
0.0441091
0.155752
0.158188
0
0
0
0
0
0
0
0
0
0
0
0
0
0
0
0
0
0
0
0
0
0
0
0
0
0
9.88131e-324
6.21174e-306
4.79997e-288
3.62098e-270
2.63749e-252
1.8089e-234
1.13308e-216
6.14277e-199
2.68504e-181
8.50419e-164
1.70194e-146
1.80138e-129
8.22397e-113
1.29498e-96
5.64261e-81
5.52566e-66
1.01481e-51
2.95805e-38
1.26985e-25
8.64142e-14
0.000391329
0.0372095
0.150061
0.155219
0
0
0
0
0
0
0
0
0
0
0
0
0
0
0
0
0
0
0
0
0
0
0
0
0
0
0
1.08823e-306
8.40623e-289
6.3379e-271
4.61873e-253
3.16914e-235
1.98913e-217
1.08114e-199
4.74892e-182
1.51401e-164
3.0613e-147
3.28552e-130
1.52994e-113
2.47258e-97
1.11604e-81
1.14408e-66
2.24066e-52
7.11317e-39
3.47395e-26
2.65124e-14
0.000293479
0.0310746
0.143939
0.152256
0
0
0
0
0
0
0
0
0
0
0
0
0
0
0
0
0
0
0
0
0
0
0
0
0
0
0
2.18572e-308
1.64389e-290
1.20049e-272
8.41972e-255
5.52245e-237
3.28747e-219
1.68377e-201
6.92924e-184
2.06519e-166
3.91234e-149
3.97132e-132
1.7797e-115
2.84214e-99
1.31201e-83
1.43419e-68
3.14454e-54
1.18235e-40
7.20777e-28
6.58514e-16
9.28339e-05
0.0170367
0.123191
0.143009
0
0
0
0
0
0
0
0
0
0
0
0
0
0
0
0
0
0
0
0
0
0
0
0
0
0
0
1.19074e-307
8.98373e-290
6.58766e-272
4.6374e-254
3.05585e-236
1.8266e-218
9.39754e-201
3.87894e-183
1.15844e-165
2.19135e-148
2.21226e-131
9.7896e-115
1.53048e-98
6.82879e-83
7.10665e-68
1.44842e-53
4.92065e-40
2.57054e-27
1.97494e-15
0.000133877
0.0206981
0.130967
0.146625
0
0
0
0
0
0
0
0
0
0
0
0
0
0
0
0
0
0
0
0
0
0
0
0
0
0
0
7.01721e-307
5.3002e-289
3.89417e-271
2.74554e-253
1.81337e-235
1.08571e-217
5.59527e-200
2.30974e-182
6.8878e-165
1.29597e-147
1.29511e-130
5.62942e-114
8.56418e-98
3.66968e-82
3.61011e-67
6.79386e-53
2.07352e-39
9.2903e-27
6.1331e-15
0.000189965
0.0254631
0.138228
0.150213
0
0
0
0
0
0
0
0
0
0
0
0
0
0
0
0
0
0
0
0
0
0
0
0
0
0
4.94066e-324
4.16624e-306
3.15112e-288
2.31998e-270
1.63846e-252
1.08463e-234
6.50418e-217
3.35657e-199
1.38508e-181
4.12094e-164
7.70411e-147
7.61047e-130
3.24352e-113
4.7913e-97
1.967e-81
1.82589e-66
3.17222e-52
8.72429e-39
3.38733e-26
1.99003e-14
0.000267585
0.0314544
0.145018
0.153719
0
0
0
0
0
0
0
0
0
0
0
0
0
0
0
0
0
0
0
0
0
0
0
0
0
0
2.96439e-323
2.32572e-305
1.76184e-287
1.29999e-269
9.19806e-252
6.10268e-234
3.66516e-216
1.89367e-198
7.80819e-181
2.3164e-163
4.29909e-146
4.19307e-129
1.75007e-112
2.50739e-96
9.85898e-81
8.64069e-66
1.38995e-51
3.46824e-38
1.18534e-25
6.42542e-14
0.000372618
0.0382886
0.151225
0.157026
0
0
0
0
0
0
0
0
0
0
0
0
0
0
0
0
0
0
0
0
0
0
0
0
0
0
1.4822e-322
1.13136e-304
8.58698e-287
6.35144e-269
4.50337e-251
2.99519e-233
1.80187e-215
9.32081e-198
3.84045e-180
1.13594e-162
2.09296e-145
2.01574e-128
8.24332e-112
1.14685e-95
4.32863e-80
3.59635e-65
5.39412e-51
1.2353e-37
3.79078e-25
1.96116e-13
0.00050458
0.0452204
0.156662
0.159993
0
0
0
0
0
0
0
0
0
0
0
0
0
0
0
0
0
0
0
0
0
0
0
0
0
0
5.53354e-322
4.27656e-304
3.25307e-286
2.41256e-268
1.71467e-250
1.14343e-232
6.89213e-215
3.57061e-197
1.47082e-179
4.34031e-162
7.94733e-145
7.56995e-128
3.04069e-111
4.12311e-95
1.502e-79
1.19214e-64
1.68596e-50
3.59871e-37
1.01445e-24
5.14893e-13
0.00064978
0.0514347
0.161124
0.162475
0
0
0
0
0
0
0
0
0
0
0
0
0
0
0
0
0
0
0
0
0
0
0
0
0
0
1.47726e-321
1.14694e-303
8.74367e-286
6.50121e-268
4.63167e-250
3.09692e-232
1.87077e-214
9.71017e-197
4.00194e-179
1.1797e-161
2.15113e-144
2.03279e-127
8.05668e-111
1.07145e-94
3.79974e-79
2.91365e-64
3.94357e-50
7.99486e-37
2.12171e-24
1.07591e-12
0.000783797
0.0562847
0.164428
0.164338
0
0
0
0
0
0
0
0
0
0
0
0
0
0
0
0
0
0
0
0
0
0
0
0
0
0
2.60867e-321
2.02923e-303
1.55009e-285
1.15527e-267
8.25039e-250
5.5315e-232
3.35006e-214
1.7433e-196
7.19825e-179
2.12409e-161
3.8701e-144
3.64572e-127
1.43549e-110
1.88907e-94
6.59791e-79
4.95997e-64
6.54438e-50
1.28807e-36
3.30465e-24
1.69172e-12
0.00087941
0.0593754
0.16643
0.165476
0
0
0
0
0
0
0
0
0
0
0
0
0
0
0
0
0
0
0
0
0
0
0
0
0
0
3.00886e-321
2.34046e-303
1.79085e-285
1.33742e-267
9.57317e-250
6.43582e-232
3.90963e-214
2.04144e-196
8.4599e-179
2.50581e-161
4.58165e-144
4.32874e-127
1.70771e-110
2.24869e-94
7.84514e-79
5.88016e-64
7.72183e-50
1.51104e-36
3.85272e-24
1.99711e-12
0.00091735
0.0604701
0.167038
0.165817
0
0
0
0
0
0
0
0
0
0
0
0
0
0
0
0
0
0
0
0
0
0
0
0
0
0
2.1146e-321
1.64919e-303
1.2638e-285
9.45549e-268
6.78443e-250
4.57459e-232
2.78951e-214
1.46336e-196
6.09961e-179
1.8194e-161
3.35484e-144
3.201e-127
1.27716e-110
1.70301e-94
6.02539e-79
4.58659e-64
6.12822e-50
1.22182e-36
3.18456e-24
1.67474e-12
0.000884645
0.0595024
0.166227
0.16534
0
0
0
0
0
0
0
0
0
0
0
0
0
0
0
0
0
0
0
0
0
0
0
0
0
0
9.28843e-322
7.25925e-304
5.57022e-286
4.17441e-268
3.00278e-250
2.03122e-232
1.24426e-214
6.56589e-197
2.75876e-179
8.31334e-162
1.55345e-144
1.50692e-127
6.13664e-111
8.38456e-95
3.05318e-79
2.40181e-64
3.33487e-50
6.94217e-37
1.90284e-24
1.01805e-12
0.000789366
0.0564965
0.164025
0.164066
0
0
0
0
0
0
0
0
0
0
0
0
0
0
0
0
0
0
0
0
0
0
0
0
0
0
2.61855e-322
2.05577e-304
1.57945e-286
1.18555e-268
8.55117e-251
5.80475e-233
3.57471e-215
1.89956e-197
8.06028e-180
2.46058e-162
4.67863e-145
4.64024e-128
1.94374e-111
2.74838e-95
1.04301e-79
8.61134e-65
1.26693e-50
2.81748e-37
8.34396e-25
4.56805e-13
0.000650806
0.0516042
0.160524
0.162063
0
0
0
0
0
0
0
0
0
0
0
0
0
0
0
0
0
0
0
0
0
0
0
0
0
0
5.43472e-323
4.06004e-305
3.12396e-287
2.34908e-269
1.69956e-251
1.15828e-233
7.17601e-216
3.8436e-198
1.64955e-180
5.11165e-163
9.91971e-146
1.01009e-128
4.37671e-112
6.45258e-96
2.57812e-80
2.26367e-65
3.5836e-51
8.67447e-38
2.84876e-25
1.62009e-13
0.000500475
0.0452672
0.155869
0.159443
0
0
0
0
0
0
0
0
0
0
0
0
0
0
0
0
0
0
0
0
0
0
0
0
0
0
9.88131e-324
6.40457e-306
4.93748e-288
3.72092e-270
2.70171e-252
1.84942e-234
1.15341e-216
6.23151e-199
2.70742e-181
8.52683e-164
1.6917e-146
1.77273e-129
7.97254e-113
1.23104e-96
5.20788e-81
4.89909e-66
8.46184e-52
2.27187e-38
8.46914e-26
5.14152e-14
0.000367734
0.038222
0.150245
0.156341
0
0
0
0
0
0
0
0
0
0
0
0
0
0
0
0
0
0
0
0
0
0
0
0
0
0
0
8.85184e-307
6.83971e-289
5.1674e-271
3.7667e-253
2.59049e-235
1.62682e-217
8.86712e-200
3.90115e-182
1.24899e-164
2.53446e-147
2.73497e-130
1.27826e-113
2.07209e-97
9.32399e-82
9.46288e-67
1.79425e-52
5.39794e-39
2.33764e-26
1.57048e-14
0.000263779
0.0313271
0.143861
0.152909
0
0
0
0
0
0
0
0
0
0
0
0
0
0
0
0
0
0
0
0
0
0
0
0
0
0
0
1.13205e-307
8.76869e-290
6.64167e-272
4.86036e-254
3.35785e-236
2.12295e-218
1.16692e-200
5.19597e-183
1.68968e-165
3.50316e-148
3.8878e-131
1.88577e-114
3.20411e-98
1.53088e-82
1.67504e-67
3.50896e-53
1.19634e-39
6.12726e-27
4.74012e-15
0.00018695
0.0253052
0.136912
0.149295
0
0
0
0
0
0
0
0
0
0
0
0
0
0
0
0
0
0
0
0
0
0
0
0
0
0
0
1.41653e-308
1.09998e-290
8.35206e-273
6.13575e-255
4.25702e-237
2.70877e-219
1.50061e-201
6.75741e-184
2.22958e-166
4.71668e-149
5.37456e-132
2.70074e-115
4.80265e-99
2.43496e-83
2.87301e-68
6.64073e-54
2.57102e-40
1.57609e-27
1.46031e-15
0.000131034
0.0205204
0.129518
0.14562
0
0
0
0
0
0
0
0
0
0
0
0
0
0
0
0
0
0
0
0
0
0
0
0
0
0
0
1.8925e-309
1.46984e-291
1.11603e-273
8.20894e-256
5.70357e-238
3.64127e-220
2.02605e-202
9.19151e-185
3.06336e-167
6.57906e-150
7.65249e-133
3.95781e-116
7.31076e-100
3.9005e-84
4.91826e-69
1.2462e-54
5.45397e-41
4.01124e-28
4.56237e-16
8.98034e-05
0.0168552
0.121643
0.141939
0
0
0
0
0
0
0
0
0
0
0
0
0
0
0
0
0
0
0
0
0
0
0
0
0
0
0
7.56267e-311
5.70666e-293
4.18587e-275
2.95288e-257
1.95288e-239
1.17617e-221
6.12751e-204
2.58465e-186
7.98346e-169
1.59094e-151
1.73252e-134
8.53581e-118
1.54348e-101
8.35563e-86
1.11694e-70
3.15541e-56
1.63318e-42
1.49591e-29
2.15787e-17
1.43705e-05
0.010019
0.100878
0.133198
0
0
0
0
0
0
0
0
0
0
0
0
0
0
0
0
0
0
0
0
0
0
0
0
0
0
0
4.95097e-310
3.7487e-292
2.76149e-274
1.95558e-256
1.29932e-238
7.85634e-221
4.10916e-203
1.73669e-185
5.36498e-168
1.06437e-150
1.14734e-133
5.5432e-117
9.71549e-101
5.01403e-85
6.26126e-70
1.60248e-55
7.23415e-42
5.40863e-29
6.08655e-17
2.65557e-05
0.0118227
0.109718
0.137279
0
0
0
0
0
0
0
0
0
0
0
0
0
0
0
0
0
0
0
0
0
0
0
0
0
0
0
3.32247e-309
2.51754e-291
1.85744e-273
1.31681e-255
8.76365e-238
5.30329e-220
2.77498e-202
1.17072e-184
3.60111e-167
7.07697e-150
7.50686e-133
3.53312e-116
5.95788e-100
2.90844e-84
3.3653e-69
7.74834e-55
3.03621e-41
1.86093e-28
1.67679e-16
4.78181e-05
0.014271
0.118258
0.141366
0
0
0
0
0
0
0
0
0
0
0
0
0
0
0
0
0
0
0
0
0
0
0
0
0
0
0
2.21652e-308
1.68096e-290
1.24199e-272
8.81405e-255
5.87401e-237
3.55635e-219
1.86056e-201
7.82995e-184
2.39562e-166
4.65767e-149
4.85413e-132
2.22142e-115
3.59662e-99
1.65781e-83
1.77619e-68
3.6855e-54
1.26215e-40
6.44747e-28
4.85178e-16
8.2282e-05
0.0177643
0.126497
0.145428
0
0
0
0
0
0
0
0
0
0
0
0
0
0
0
0
0
0
0
0
0
0
0
0
0
0
0
1.35057e-307
1.02482e-289
7.58033e-272
5.38315e-254
3.59087e-236
2.17394e-218
1.13639e-200
4.76649e-183
1.44911e-165
2.78399e-148
2.84653e-131
1.26505e-114
1.96494e-98
8.55433e-83
8.50328e-68
1.59886e-53
4.83895e-40
2.10745e-27
1.38839e-15
0.000130311
0.0224334
0.134206
0.149326
0
0
0
0
0
0
0
0
0
0
0
0
0
0
0
0
0
0
0
0
0
0
0
0
0
0
0
7.30971e-307
5.55219e-289
4.11258e-271
2.92357e-253
1.9525e-235
1.18225e-217
6.17589e-200
2.58234e-182
7.80223e-165
1.48165e-147
1.48726e-130
6.42685e-114
9.59875e-98
3.96247e-82
3.67784e-67
6.33148e-53
1.72073e-39
6.55529e-27
3.93657e-15
0.000191695
0.0279719
0.141063
0.152875
0
0
0
0
0
0
0
0
0
0
0
0
0
0
0
0
0
0
0
0
0
0
0
0
0
0
4.94066e-324
3.08921e-306
2.34936e-288
1.7431e-270
1.24072e-252
8.29761e-235
5.02691e-217
2.62531e-199
1.09499e-181
3.29113e-164
6.18724e-147
6.11146e-130
2.5772e-113
3.72083e-97
1.46749e-81
1.28539e-66
2.05647e-52
5.1223e-39
1.75741e-26
9.99746e-15
0.00026238
0.0335996
0.146745
0.155876
0
0
0
0
0
0
0
0
0
0
0
0
0
0
0
0
0
0
0
0
0
0
0
0
0
0
1.4822e-323
9.17207e-306
6.98588e-288
5.19293e-270
3.7024e-252
2.48057e-234
1.50456e-216
7.86269e-199
3.27589e-181
9.81484e-164
1.83238e-146
1.78896e-129
7.4083e-113
1.04274e-96
3.97437e-81
3.33386e-66
5.05281e-52
1.18147e-38
3.7648e-26
2.08835e-14
0.000331829
0.0383802
0.150979
0.158144
0
0
0
0
0
0
0
0
0
0
0
0
0
0
0
0
0
0
0
0
0
0
0
0
0
0
2.47033e-323
1.73972e-305
1.32725e-287
9.88568e-270
7.06213e-252
4.74226e-234
2.88223e-216
1.50905e-198
6.29354e-181
1.88532e-163
3.5113e-146
3.41014e-129
1.399e-112
1.94163e-96
7.25701e-81
5.93745e-66
8.72042e-52
1.96623e-38
6.00952e-26
3.3156e-14
0.000383847
0.0415772
0.153562
0.159534
0
0
0
0
0
0
0
0
0
0
0
0
0
0
0
0
0
0
0
0
0
0
0
0
0
0
3.45846e-323
2.0135e-305
1.53862e-287
1.14825e-269
8.22164e-252
5.53575e-234
3.37466e-216
1.77288e-198
7.42015e-181
2.23085e-163
4.1685e-146
4.05879e-129
1.66731e-112
2.31338e-96
8.62657e-81
7.0269e-66
1.02532e-51
2.29375e-38
6.9487e-26
3.86217e-14
0.000404043
0.0427369
0.15437
0.159951
0
0
0
0
0
0
0
0
0
0
0
0
0
0
0
0
0
0
0
0
0
0
0
0
0
0