/*--------------------------------*- C++ -*----------------------------------*\
  =========                 |
  \\      /  F ield         | OpenFOAM: The Open Source CFD Toolbox
   \\    /   O peration     | Website:  https://openfoam.org
    \\  /    A nd           | Version:  10
     \\/     M anipulation  |
\*---------------------------------------------------------------------------*/
FoamFile
{
    format      ascii;
    class       volScalarField;
    location    "0.010225";
    object      nuTilda;
}
// * * * * * * * * * * * * * * * * * * * * * * * * * * * * * * * * * * * * * //

dimensions      [0 2 -1 0 0 0 0];

internalField   nonuniform List<scalar> 
344916
(
7.88042e-102
8.4081e-101
3.39691e-100
5.97469e-100
4.9615e-100
4.23551e-100
2.46796e-100
1.27309e-100
8.49229e-101
7.01687e-101
6.53231e-101
6.38626e-101
6.34612e-101
6.34847e-101
6.36441e-101
6.38272e-101
6.39996e-101
6.41504e-101
6.42771e-101
6.43779e-101
6.44493e-101
6.44763e-101
1.09421e-100
1.33783e-96
3.98759e-92
1.18673e-87
3.52546e-83
1.04372e-78
3.07582e-74
8.99329e-70
2.59994e-65
7.3811e-61
2.04008e-56
5.412e-52
1.35198e-47
3.09321e-43
6.25454e-39
1.06811e-34
1.46249e-30
1.51756e-26
1.12776e-22
5.6884e-19
1.85222e-15
3.71538e-12
4.45303e-09
3.64997e-06
0.00228979
0.0847501
0.185621
0.172874
4.42121e-101
8.30937e-101
1.89157e-99
7.12885e-99
7.3422e-99
7.40317e-99
3.83553e-99
1.10431e-99
4.36286e-100
2.63368e-100
2.16867e-100
2.0403e-100
2.00765e-100
2.0036e-100
2.00763e-100
2.01342e-100
2.01909e-100
2.02419e-100
2.02853e-100
2.03217e-100
2.03508e-100
2.03703e-100
2.56609e-100
1.57754e-96
4.70368e-92
1.4006e-87
4.16304e-83
1.23333e-78
3.6371e-74
1.06438e-69
3.07988e-65
8.75365e-61
2.42233e-56
6.43538e-52
1.61003e-47
3.68985e-43
7.4732e-39
1.27832e-34
1.75264e-30
1.82048e-26
1.35331e-22
6.82384e-19
2.21825e-15
4.43798e-12
5.29364e-09
4.41998e-06
0.00265253
0.0893932
0.187755
0.174109
2.65555e-100
5.39576e-100
1.72338e-99
3.04044e-98
1.04272e-97
1.4306e-97
8.924e-98
2.22969e-98
5.82768e-99
2.34175e-99
1.6224e-99
1.44562e-99
1.40262e-99
1.39492e-99
1.39648e-99
1.40008e-99
1.40372e-99
1.40709e-99
1.41005e-99
1.41266e-99
1.41498e-99
1.417e-99
1.48037e-99
1.84637e-96
5.50358e-92
1.63956e-87
4.87546e-83
1.44527e-78
4.26463e-74
1.24902e-69
3.61701e-65
1.0291e-60
2.85078e-56
7.58345e-52
1.89973e-47
4.36022e-43
8.84289e-39
1.51455e-34
2.07831e-30
2.15963e-26
1.60466e-22
8.08037e-19
2.61875e-15
5.21651e-12
6.17848e-09
5.25176e-06
0.00303473
0.093921
0.189806
0.175438
1.34364e-99
2.15649e-99
5.47097e-99
2.16331e-98
3.2638e-97
8.1981e-97
8.16139e-97
3.73563e-97
8.43417e-98
1.99767e-98
1.10157e-98
9.12682e-99
8.69165e-99
8.60701e-99
8.60902e-99
8.63031e-99
8.65342e-99
8.67506e-99
8.69488e-99
8.71332e-99
8.73206e-99
8.75245e-99
8.84663e-99
2.18577e-96
6.49616e-92
1.93612e-87
5.75977e-83
1.70841e-78
5.04392e-74
1.47837e-69
4.28441e-65
1.22017e-60
3.38341e-56
9.01104e-52
2.26e-47
5.19368e-43
1.05447e-38
1.80769e-34
2.48152e-30
2.57812e-26
1.91331e-22
9.61319e-19
3.10309e-15
6.14788e-12
7.22486e-09
6.25501e-06
0.00346041
0.0981955
0.191752
0.176799
5.75092e-99
7.81505e-99
1.45011e-98
4.1976e-98
1.78812e-97
2.17056e-96
3.45092e-96
2.24295e-96
1.0612e-96
1.45837e-97
6.35145e-98
4.8921e-98
4.57917e-98
4.51959e-98
4.5194e-98
4.53197e-98
4.5452e-98
4.55818e-98
4.5713e-98
4.58448e-98
4.60067e-98
4.6235e-98
4.66056e-98
2.64551e-96
7.75721e-92
2.31293e-87
6.88354e-83
2.04283e-78
6.03447e-74
1.76992e-69
5.13295e-65
1.4631e-60
4.06069e-56
1.0826e-51
2.7179e-47
6.2522e-43
1.27034e-38
2.17879e-34
2.99055e-30
3.10433e-26
2.29943e-22
1.1518e-18
3.70021e-15
7.28547e-12
8.49432e-09
7.49737e-06
0.003941
0.102107
0.193551
0.178123
2.04125e-98
2.35783e-98
3.4754e-98
7.12916e-98
2.26472e-97
9.41455e-97
8.21453e-96
9.26464e-96
3.97285e-96
7.62762e-97
2.82179e-97
2.07192e-97
1.9313e-97
1.90859e-97
1.91186e-97
1.92004e-97
1.92669e-97
1.93416e-97
1.94364e-97
1.95351e-97
1.96806e-97
1.99398e-97
2.03183e-97
3.27405e-96
9.16197e-92
2.73301e-87
8.13743e-83
2.4163e-78
7.14177e-74
2.09617e-69
6.08345e-65
1.73553e-60
4.82092e-56
1.28651e-51
3.23267e-47
7.44254e-43
1.51301e-38
2.5954e-34
3.56061e-30
3.69131e-26
2.72774e-22
1.36152e-18
4.35138e-15
8.51213e-12
9.84974e-09
8.85443e-06
0.00442756
0.105524
0.195142
0.179338
5.42619e-98
5.74168e-98
6.7447e-98
1.02486e-97
2.47977e-97
7.3858e-97
2.24992e-96
1.23754e-95
6.69617e-96
3.68587e-96
8.87021e-97
6.36559e-97
6.14349e-97
6.14729e-97
6.20265e-97
6.26428e-97
6.29147e-97
6.33495e-97
6.4114e-97
6.48401e-97
6.60314e-97
6.86085e-97
7.2806e-97
4.25237e-96
1.04475e-91
3.11767e-87
9.2862e-83
2.75874e-78
8.1578e-74
2.39583e-69
6.95721e-65
1.98625e-60
5.52123e-56
1.47455e-51
3.70758e-47
8.54085e-43
1.73671e-38
2.97864e-34
4.08282e-30
4.22567e-26
3.11402e-22
1.54833e-18
4.92169e-15
9.56403e-12
1.09819e-08
1.00352e-05
0.00485671
0.108349
0.196468
0.180375
1.26279e-97
1.29666e-97
1.38384e-97
1.61488e-97
2.29135e-97
4.52554e-97
8.00354e-97
1.1362e-96
7.87749e-97
1.617e-96
1.24365e-96
1.16328e-96
1.3751e-96
1.42481e-96
1.47023e-96
1.51854e-96
1.5228e-96
1.54666e-96
1.60848e-96
1.65631e-96
1.73218e-96
1.92839e-96
2.31142e-96
6.34318e-96
1.1423e-91
3.40998e-87
1.01605e-82
3.01985e-78
8.93389e-74
2.62523e-69
7.62761e-65
2.17913e-60
6.06139e-56
1.62e-51
4.07586e-47
9.39462e-43
1.91084e-38
3.27709e-34
4.48891e-30
4.63977e-26
3.41152e-22
1.69094e-18
5.35146e-15
1.03443e-11
1.18059e-08
1.09106e-05
0.00516788
0.110398
0.197439
0.181158
2.15065e-97
2.18587e-97
2.26133e-97
2.40626e-97
2.70636e-97
3.31972e-97
4.04376e-97
4.407e-97
4.03596e-97
3.59976e-97
3.28404e-97
3.77811e-97
1.94077e-96
2.1095e-96
2.32932e-96
2.70644e-96
2.64725e-96
2.75334e-96
3.18039e-96
3.45679e-96
3.78958e-96
4.74529e-96
7.1899e-96
1.23626e-95
1.19993e-91
3.58254e-87
1.06766e-82
3.17412e-78
9.39275e-74
2.76107e-69
8.02517e-65
2.29379e-60
6.38329e-56
1.70695e-51
4.29673e-47
9.90832e-43
2.01585e-38
3.45729e-34
4.73378e-30
4.88847e-26
3.58867e-22
1.77475e-18
5.59897e-15
1.07817e-11
1.22493e-08
1.14437e-05
0.00539744
0.111722
0.198022
0.181655
2.58054e-97
2.61313e-97
2.6754e-97
2.76881e-97
2.90757e-97
3.10755e-97
3.31555e-97
3.43732e-97
3.41235e-97
3.32511e-97
3.31511e-97
3.51916e-97
4.42048e-97
5.02871e-97
7.74447e-97
3.78478e-96
3.20896e-96
3.50806e-96
5.5984e-96
7.04357e-96
7.9245e-96
9.03313e-96
1.09337e-95
1.62899e-95
1.21932e-91
3.64123e-87
1.08551e-82
3.22834e-78
9.55745e-74
2.81087e-69
8.17482e-65
2.33814e-60
6.51196e-56
1.74292e-51
4.39172e-47
1.01384e-42
2.06508e-38
3.54584e-34
4.86056e-30
5.02454e-26
3.69202e-22
1.82729e-18
5.7692e-15
1.11189e-11
1.26568e-08
1.18947e-05
0.00550298
0.112083
0.198129
0.18179
2.15797e-97
2.18347e-97
2.22953e-97
2.28891e-97
2.35969e-97
2.43929e-97
2.51642e-97
2.57436e-97
2.60524e-97
2.63293e-97
2.71711e-97
2.81237e-97
2.98312e-97
3.29678e-97
4.7182e-97
7.1905e-97
6.99163e-97
7.81696e-97
1.25713e-96
6.23623e-96
7.19453e-96
7.95152e-96
8.98322e-96
1.36134e-95
1.16016e-91
3.46497e-87
1.03314e-82
3.07317e-78
9.1006e-74
2.67734e-69
7.7899e-65
2.22919e-60
6.21268e-56
1.66412e-51
4.19735e-47
9.70083e-43
1.97867e-38
3.4027e-34
4.67254e-30
4.83935e-26
3.56345e-22
1.76766e-18
5.59578e-15
1.08163e-11
1.23596e-08
1.16499e-05
0.00544086
0.111652
0.197804
0.181591
1.2887e-97
1.30394e-97
1.33049e-97
1.36394e-97
1.40048e-97
1.43788e-97
1.47318e-97
1.50367e-97
1.53319e-97
1.59441e-97
1.86886e-97
1.97599e-97
2.04406e-97
2.14488e-97
2.42039e-97
2.66837e-97
2.57105e-97
2.59459e-97
2.74565e-97
5.10646e-97
5.89138e-97
6.63953e-97
8.7624e-97
8.44395e-96
1.04789e-91
3.12945e-87
9.33108e-83
2.77558e-78
8.22055e-74
2.41878e-69
7.04002e-65
2.01539e-60
5.62058e-56
1.50672e-51
3.80474e-47
8.80565e-43
1.79942e-38
3.10128e-34
4.27047e-30
4.4372e-26
3.28011e-22
1.63436e-18
5.20241e-15
1.01192e-11
1.16587e-08
1.10047e-05
0.00524442
0.110385
0.197045
0.181059
6.34926e-98
6.43655e-98
6.5922e-98
6.78908e-98
7.00378e-98
7.21875e-98
7.42019e-98
7.60153e-98
7.78135e-98
8.04298e-98
8.6529e-98
8.95704e-98
9.10816e-98
9.19769e-98
9.24103e-98
8.69002e-98
6.5745e-98
6.34024e-98
6.73451e-98
8.16444e-98
8.93461e-98
9.86724e-98
1.29313e-97
3.35483e-96
9.02003e-92
2.69396e-87
8.03386e-83
2.39004e-78
7.08064e-74
2.08397e-69
6.06843e-65
1.73821e-60
4.85163e-56
1.30191e-51
3.29216e-47
7.63272e-43
1.56335e-38
2.70216e-34
3.73433e-30
3.89696e-26
2.89594e-22
1.45185e-18
4.65652e-15
9.13707e-12
1.06389e-08
9.98615e-06
0.00489371
0.108184
0.195838
0.180193
2.12199e-98
2.15249e-98
2.20741e-98
2.27761e-98
2.35431e-98
2.43073e-98
2.50255e-98
2.56601e-98
2.62531e-98
2.69063e-98
2.78002e-98
2.82691e-98
2.82714e-98
2.75642e-98
2.53873e-98
1.89961e-98
1.61143e-98
1.55931e-98
1.63969e-98
1.74226e-98
1.77604e-98
1.77191e-98
2.05968e-98
2.5346e-96
7.48276e-92
2.23527e-87
6.66749e-83
1.98407e-78
5.87988e-74
1.73125e-69
5.0439e-65
1.44567e-60
4.0385e-56
1.08486e-51
2.74714e-47
6.38046e-43
1.30984e-38
2.27045e-34
3.14881e-30
3.29998e-26
2.46479e-22
1.24317e-18
4.01549e-15
7.94347e-12
9.32827e-09
8.61899e-06
0.00440787
0.105237
0.194287
0.179079
5.22932e-99
5.30115e-99
5.43079e-99
5.59751e-99
5.78013e-99
5.96212e-99
6.1323e-99
6.28283e-99
6.41482e-99
6.53499e-99
6.6423e-99
6.6612e-99
6.51441e-99
6.02674e-99
4.5471e-99
3.80963e-99
3.54393e-99
3.50594e-99
3.62486e-99
3.76204e-99
3.56695e-99
3.51701e-99
3.83443e-99
2.03652e-96
6.07631e-92
1.81509e-87
5.41453e-83
1.61133e-78
4.77607e-74
1.40652e-69
4.0993e-65
1.17544e-60
3.28585e-56
8.8344e-52
2.23983e-47
5.2103e-43
1.07187e-38
1.86289e-34
2.59235e-30
2.72811e-26
2.0481e-22
1.03936e-18
3.38319e-15
6.75386e-12
8.01479e-09
7.2907e-06
0.00391565
0.101645
0.19245
0.177775
1.02187e-99
1.03485e-99
1.05803e-99
1.08783e-99
1.12033e-99
1.15253e-99
1.18229e-99
1.20791e-99
1.22845e-99
1.24397e-99
1.25067e-99
1.23338e-99
1.15947e-99
8.99506e-100
7.89685e-100
7.49623e-100
7.48485e-100
7.80657e-100
7.54451e-100
5.2879e-100
4.81458e-100
4.58701e-100
6.05149e-100
1.63855e-96
4.88648e-92
1.45958e-87
4.35424e-83
1.29579e-78
3.84137e-74
1.13139e-69
3.29846e-65
9.46118e-61
2.64637e-56
7.12008e-52
1.80713e-47
4.20937e-43
8.67573e-39
1.51135e-34
2.10968e-30
2.22866e-26
1.68138e-22
8.58384e-19
2.81579e-15
5.67366e-12
6.81657e-09
6.11584e-06
0.00345211
0.0975396
0.19041
0.176363
1.67451e-100
1.6959e-100
1.73248e-100
1.77795e-100
1.82526e-100
1.87068e-100
1.911e-100
1.94176e-100
1.9572e-100
1.97712e-100
2.04015e-100
1.95245e-100
1.58449e-100
1.37537e-100
9.67293e-101
1.0687e-100
1.15304e-100
1.27184e-100
1.52518e-100
8.6911e-100
7.6973e-100
5.6064e-100
6.16959e-100
1.31807e-96
3.93672e-92
1.17577e-87
3.50773e-83
1.04383e-78
3.09476e-74
9.11542e-70
2.65818e-65
7.62628e-61
2.13415e-56
5.74493e-52
1.45938e-47
3.40284e-43
7.02402e-39
1.22592e-34
1.71564e-30
1.81816e-26
1.37742e-22
7.06843e-19
2.33556e-15
4.74817e-12
5.77661e-09
5.1148e-06
0.00302544
0.0930352
0.188232
0.174916
2.46211e-101
2.50536e-101
2.58891e-101
2.66504e-101
2.72886e-101
2.78321e-101
2.82506e-101
2.84159e-101
2.76065e-101
2.2721e-101
1.6471e-101
1.6198e-101
1.52401e-101
1.99082e-101
1.20941e-100
1.45574e-100
1.6243e-100
1.81153e-100
2.07076e-100
3.39347e-100
2.82116e-100
2.18267e-100
2.05283e-100
1.04568e-96
3.1249e-92
9.33158e-88
2.78381e-83
8.283e-79
2.45577e-74
7.23278e-70
2.1094e-65
6.05211e-61
1.69408e-56
4.56155e-52
1.15941e-47
2.70519e-43
5.58976e-39
9.76884e-35
1.36971e-30
1.45502e-26
1.10597e-22
5.6992e-19
1.89426e-15
3.87968e-12
4.77266e-09
4.16409e-06
0.00260541
0.088246
0.185969
0.173512
3.64493e-102
3.74845e-102
4.28558e-102
4.47141e-102
4.55778e-102
4.60416e-102
4.61133e-102
4.61644e-102
4.59029e-102
4.78131e-102
2.62257e-101
2.81376e-101
2.97178e-101
3.9252e-101
7.94952e-101
9.27405e-101
1.02434e-100
1.10865e-100
9.21518e-101
1.01468e-100
8.27921e-101
7.10879e-101
8.99729e-101
8.35591e-97
2.49701e-92
7.45523e-88
2.22382e-83
6.61566e-79
1.96127e-74
5.7756e-70
1.68439e-65
4.83238e-61
1.35276e-56
3.64277e-52
9.26126e-48
2.16158e-43
4.46913e-39
7.81639e-35
1.09724e-30
1.16736e-26
8.89253e-23
4.59525e-19
1.53384e-15
3.15843e-12
3.91673e-09
3.36439e-06
0.00222517
0.0833646
0.183666
0.172224
7.00091e-99
7.5149e-98
3.038e-97
5.34276e-97
4.43085e-97
3.77875e-97
2.20106e-97
1.13678e-97
7.58756e-98
6.27022e-98
5.83729e-98
5.70678e-98
5.6709e-98
5.67299e-98
5.68721e-98
5.70356e-98
5.71895e-98
5.73242e-98
5.74372e-98
5.75271e-98
5.75908e-98
5.76134e-98
5.75772e-98
3.4175e-97
8.43383e-93
2.50649e-88
7.43705e-84
2.19901e-79
6.47391e-75
1.89113e-70
5.46457e-66
1.55117e-61
4.29047e-57
1.14017e-52
2.85817e-48
6.57632e-44
1.34162e-39
2.32077e-35
3.2354e-31
3.43848e-27
2.63642e-23
1.38351e-19
4.7404e-16
1.01387e-12
1.31986e-09
1.09966e-06
0.000873888
0.0555671
0.16679
0.163267
3.19815e-98
5.94926e-98
1.37377e-96
5.17113e-96
5.28756e-96
5.31041e-96
2.74146e-96
7.89972e-97
3.13637e-97
1.89903e-97
1.5649e-97
1.47253e-97
1.44902e-97
1.44612e-97
1.44903e-97
1.45321e-97
1.45731e-97
1.46099e-97
1.46412e-97
1.46676e-97
1.46885e-97
1.47025e-97
1.47071e-97
5.21892e-97
1.1131e-92
3.31071e-88
9.83054e-84
2.9095e-79
8.57324e-75
2.50724e-70
7.25273e-66
2.06157e-61
5.70979e-57
1.51973e-52
3.81521e-48
8.79211e-44
1.79589e-39
3.10958e-35
4.336e-31
4.60526e-27
3.52375e-23
1.84252e-19
6.27338e-16
1.32977e-12
1.70557e-09
1.42199e-06
0.00109862
0.0621276
0.170778
0.165325
1.59369e-97
3.24331e-97
1.02766e-96
1.8342e-95
6.28109e-95
8.59043e-95
5.3353e-95
1.31959e-95
3.45722e-96
1.39989e-96
9.71885e-97
8.6646e-97
8.40792e-97
8.36205e-97
8.37146e-97
8.393e-97
8.41487e-97
8.43504e-97
8.4528e-97
8.46843e-97
8.48232e-97
8.49436e-97
8.50386e-97
1.34912e-96
1.48507e-92
4.41984e-88
1.3132e-83
3.88979e-79
1.14705e-74
3.35786e-70
9.72247e-66
2.76689e-61
7.67205e-57
2.04473e-52
5.13941e-48
1.18583e-43
2.42424e-39
4.19949e-35
5.85332e-31
6.20799e-27
4.73577e-23
2.46452e-19
8.32668e-16
1.74639e-12
2.20431e-09
1.84297e-06
0.00137207
0.0686828
0.174486
0.167417
6.80363e-97
1.09276e-96
2.77558e-96
1.08944e-95
1.66174e-94
4.16444e-94
4.13702e-94
1.88866e-94
4.21701e-95
1.0072e-95
5.56705e-96
4.61512e-96
4.39562e-96
4.35291e-96
4.35393e-96
4.3647e-96
4.37637e-96
4.38732e-96
4.39732e-96
4.40663e-96
4.41606e-96
4.4263e-96
4.43696e-96
5.10902e-96
1.97889e-92
5.89241e-88
1.75181e-83
5.19307e-79
1.53252e-74
4.49059e-70
1.30142e-65
3.70786e-61
1.02923e-56
2.74641e-52
6.91048e-48
1.59607e-43
3.26476e-39
5.6559e-35
7.87604e-31
8.33624e-27
6.33546e-23
3.27855e-19
1.09828e-15
2.27756e-12
2.82876e-09
2.37948e-06
0.00169478
0.0750123
0.177921
0.16948
2.50037e-96
3.4004e-96
6.31316e-96
1.82835e-95
7.72995e-95
9.48591e-94
1.50405e-93
9.74787e-94
4.61767e-94
6.32465e-95
2.75824e-95
2.12514e-95
1.98922e-95
1.96331e-95
1.9632e-95
1.96865e-95
1.97438e-95
1.98001e-95
1.98568e-95
1.99138e-95
1.99836e-95
2.00816e-95
2.02031e-95
2.11779e-95
2.61465e-92
7.78589e-88
2.31609e-83
6.87086e-79
2.02909e-74
5.95083e-70
1.72607e-65
4.92274e-61
1.36777e-56
3.6536e-52
9.20101e-48
2.12663e-43
4.35093e-39
7.53457e-35
1.04769e-30
1.10593e-26
8.36798e-23
4.30319e-19
1.42851e-15
2.92813e-12
3.58088e-09
3.03916e-06
0.00206092
0.080871
0.181041
0.171433
7.77503e-96
8.98254e-96
1.32474e-95
2.71786e-95
8.63123e-95
3.56242e-94
3.14194e-93
3.53948e-93
1.51649e-93
2.89453e-94
1.07421e-94
7.88837e-95
7.35131e-95
7.26442e-95
7.27657e-95
7.30745e-95
7.33276e-95
7.36105e-95
7.39685e-95
7.43415e-95
7.48909e-95
7.58654e-95
7.72469e-95
7.93956e-95
3.37316e-92
1.0035e-87
2.98692e-83
8.86732e-79
2.62052e-74
7.69187e-70
2.2329e-65
6.37434e-61
1.77267e-56
4.73962e-52
1.19445e-47
2.7622e-43
5.65113e-39
9.77945e-35
1.35744e-30
1.42861e-26
1.0759e-22
5.49707e-19
1.80856e-15
3.66595e-12
4.42099e-09
3.79215e-06
0.00244562
0.0860169
0.183763
0.173188
1.8522e-95
1.95987e-95
2.30217e-95
3.49894e-95
8.46982e-95
2.52069e-94
7.60817e-94
4.23727e-93
2.2939e-93
1.26386e-93
3.03407e-94
2.17566e-94
2.09814e-94
2.0992e-94
2.11792e-94
2.13882e-94
2.1481e-94
2.1629e-94
2.18874e-94
2.21335e-94
2.25375e-94
2.34094e-94
2.48212e-94
2.58624e-94
4.13295e-92
1.22516e-87
3.6484e-83
1.08374e-78
3.20454e-74
9.41264e-70
2.73424e-65
7.81165e-61
2.17392e-56
5.81672e-52
1.46666e-47
3.39273e-43
6.93954e-39
1.19986e-34
1.66232e-30
1.74418e-26
1.30758e-22
6.64006e-19
2.16663e-15
4.34806e-12
5.18112e-09
4.49547e-06
0.00279565
0.0902441
0.185997
0.174659
3.97193e-95
4.07834e-95
4.35228e-95
5.07793e-95
7.19902e-95
1.42065e-94
2.50406e-94
3.46215e-94
2.41876e-94
5.07083e-94
3.91938e-94
3.66765e-94
4.32768e-94
4.48386e-94
4.62604e-94
4.77644e-94
4.79022e-94
4.86514e-94
5.05783e-94
5.20722e-94
5.44489e-94
6.05896e-94
7.25385e-94
7.92216e-94
4.82729e-92
1.41615e-87
4.2191e-83
1.25399e-78
3.71004e-74
1.09049e-69
3.1698e-65
9.06306e-61
2.52399e-56
6.75849e-52
1.7051e-47
3.94596e-43
8.07088e-39
1.3947e-34
1.92954e-30
2.01983e-26
1.50886e-22
7.62572e-19
2.47234e-15
4.92388e-12
5.81541e-09
5.09397e-06
0.00307729
0.0933644
0.187644
0.175766
6.43183e-95
6.53693e-95
6.76224e-95
7.19492e-95
8.08973e-95
9.91265e-95
1.20579e-94
1.31206e-94
1.20344e-94
1.06602e-94
9.74186e-95
1.12293e-94
5.81408e-94
6.31998e-94
6.97813e-94
8.09206e-94
7.91775e-94
8.23469e-94
9.50405e-94
1.03249e-93
1.13183e-93
1.41803e-93
2.15075e-93
2.49919e-93
5.37335e-92
1.52454e-87
4.54315e-83
1.35075e-78
3.99766e-74
1.17554e-69
3.41856e-65
9.77972e-61
2.72508e-56
7.30139e-52
1.84305e-47
4.26714e-43
8.72952e-39
1.50831e-34
2.08531e-30
2.18006e-26
1.6251e-22
8.18949e-19
2.6448e-15
5.2432e-12
6.16048e-09
5.44254e-06
0.00325617
0.0953104
0.188629
0.176446
7.58094e-95
7.6764e-95
7.85894e-95
8.13295e-95
8.53953e-95
9.12466e-95
9.73266e-95
1.0089e-94
1.00176e-94
9.76307e-95
9.73511e-95
1.03331e-94
1.28866e-94
1.46672e-94
2.26495e-94
1.11391e-93
9.44102e-94
1.03223e-93
1.6482e-93
2.07097e-93
2.32994e-93
2.65581e-93
3.21408e-93
3.59136e-93
5.62714e-92
1.56543e-87
4.6667e-83
1.38806e-78
4.11004e-74
1.20924e-69
3.51873e-65
1.00733e-60
2.80914e-56
7.53332e-52
1.90344e-47
4.41147e-43
9.03411e-39
1.56245e-34
2.16195e-30
2.26159e-26
1.6865e-22
8.49959e-19
2.74446e-15
5.43914e-12
6.39133e-09
5.67655e-06
0.00334803
0.09595
0.188888
0.176647
6.45119e-95
6.5272e-95
6.66468e-95
6.84197e-95
7.05319e-95
7.29061e-95
7.52055e-95
7.69354e-95
7.78608e-95
7.86938e-95
8.11995e-95
8.40395e-95
8.91017e-95
9.84732e-95
1.40954e-94
2.13314e-94
2.077e-94
2.32301e-94
3.73702e-94
1.86749e-93
2.15456e-93
2.3811e-93
2.6895e-93
2.91219e-93
5.24756e-92
1.47201e-87
4.38899e-83
1.30573e-78
3.86746e-74
1.13827e-69
3.31383e-65
9.49229e-61
2.64912e-56
7.11061e-52
1.79868e-47
4.17427e-43
8.56214e-39
1.48354e-34
2.05711e-30
2.15689e-26
1.61258e-22
8.14989e-19
2.64011e-15
5.25104e-12
6.19776e-09
5.52136e-06
0.00329054
0.0953273
0.18842
0.176363
4.05397e-95
4.10178e-95
4.18517e-95
4.29027e-95
4.40506e-95
4.52259e-95
4.63352e-95
4.72939e-95
4.82228e-95
5.01545e-95
5.88197e-95
6.21985e-95
6.43378e-95
6.75067e-95
7.61292e-95
8.38217e-95
8.07784e-95
8.14782e-95
8.59524e-95
1.57498e-94
1.81712e-94
2.04888e-94
2.71266e-94
1.55461e-93
4.47296e-92
1.28867e-87
3.84299e-83
1.1435e-78
3.388e-74
9.975e-70
2.90556e-65
8.32813e-61
2.32633e-56
6.25115e-52
1.58364e-47
3.68203e-43
7.57053e-39
1.31553e-34
1.83065e-30
1.92747e-26
1.44825e-22
7.36094e-19
2.40074e-15
4.81161e-12
5.73249e-09
5.11026e-06
0.00311375
0.0934241
0.187236
0.175605
2.16872e-95
2.1985e-95
2.25165e-95
2.31891e-95
2.39227e-95
2.46575e-95
2.53459e-95
2.5966e-95
2.65806e-95
2.74745e-95
2.95496e-95
3.0587e-95
3.11012e-95
3.1404e-95
3.15377e-95
2.96386e-95
2.23829e-95
2.15778e-95
2.29206e-95
2.76683e-95
3.02597e-95
3.34124e-95
4.37533e-95
1.13606e-94
3.58e-92
1.05279e-87
3.13987e-83
9.34377e-79
2.76908e-74
8.15509e-70
2.37664e-65
6.81626e-61
1.9058e-56
5.12726e-52
1.30111e-47
3.03165e-43
6.2513e-39
1.09022e-34
1.52409e-30
1.61361e-26
1.22057e-22
6.25251e-19
2.05874e-15
4.17165e-12
5.03499e-09
4.47176e-06
0.00281886
0.0902264
0.185371
0.174404
8.07996e-96
8.19605e-96
8.40518e-96
8.6726e-96
8.96477e-96
9.25599e-96
9.5296e-96
9.7715e-96
9.99729e-96
1.02459e-95
1.0584e-95
1.07616e-95
1.07617e-95
1.04907e-95
9.65844e-96
7.21274e-96
6.12378e-96
5.92576e-96
6.23093e-96
6.61339e-96
6.73759e-96
6.71494e-96
7.7634e-96
1.27596e-95
2.70517e-92
8.07193e-88
2.4073e-83
7.16345e-79
2.12316e-74
6.25372e-70
1.82318e-65
5.23149e-61
1.46391e-56
3.94281e-52
1.00218e-47
2.34022e-43
4.83994e-39
8.47326e-35
1.19039e-30
1.26799e-26
9.66348e-23
4.99491e-19
1.66256e-15
3.41144e-12
4.17929e-09
3.68296e-06
0.00243773
0.0858904
0.182915
0.172833
2.27203e-96
2.30323e-96
2.35955e-96
2.43198e-96
2.51133e-96
2.5904e-96
2.66434e-96
2.72974e-96
2.78707e-96
2.83918e-96
2.88548e-96
2.89344e-96
2.8293e-96
2.61683e-96
1.97028e-96
1.65231e-96
1.53819e-96
1.52188e-96
1.57343e-96
1.63337e-96
1.54771e-96
1.52592e-96
1.63278e-96
2.36275e-96
1.99262e-92
5.94598e-88
1.77316e-83
5.27597e-79
1.56385e-74
4.60676e-70
1.34348e-65
3.8567e-61
1.08007e-56
2.91205e-52
7.41375e-48
1.73489e-43
3.59872e-39
6.32459e-35
8.93027e-31
9.57228e-27
7.35236e-23
3.83633e-19
1.29241e-15
2.69026e-12
3.35395e-09
2.93505e-06
0.00204853
0.0806073
0.179961
0.170974
5.16834e-97
5.23393e-97
5.35111e-97
5.50179e-97
5.66608e-97
5.82885e-97
5.97928e-97
6.1088e-97
6.21254e-97
6.29073e-97
6.32382e-97
6.23569e-97
5.86088e-97
4.53795e-97
3.99103e-97
3.79226e-97
3.78836e-97
3.95261e-97
3.81683e-97
2.63575e-97
2.39944e-97
2.2916e-97
2.75747e-97
2.48468e-96
1.43161e-92
4.27264e-88
1.27406e-83
3.79043e-79
1.12359e-74
3.30994e-70
9.65569e-66
2.77279e-61
7.77076e-57
2.09707e-52
5.34679e-48
1.25363e-43
2.60765e-39
4.59944e-35
6.52583e-31
7.03777e-27
5.4483e-23
2.87053e-19
9.78959e-16
2.06836e-12
2.63064e-09
2.29255e-06
0.00168516
0.0746091
0.176614
0.168917
1.00367e-97
1.01649e-97
1.03839e-97
1.06563e-97
1.09397e-97
1.12117e-97
1.14531e-97
1.16372e-97
1.17295e-97
1.18515e-97
1.2236e-97
1.1707e-97
9.48691e-98
8.23932e-98
5.72388e-98
6.32739e-98
6.82867e-98
7.53481e-98
9.05389e-98
5.23577e-97
4.63778e-97
3.37627e-97
3.45256e-97
1.01294e-96
1.01343e-92
3.02438e-88
9.01746e-84
2.68226e-79
7.95091e-75
2.34212e-70
6.83376e-66
1.96284e-61
5.50401e-57
1.48642e-52
3.79452e-48
8.9111e-44
1.85803e-39
3.28751e-35
4.68446e-31
5.07946e-27
3.96022e-23
2.10513e-19
7.26741e-16
1.55907e-12
2.02499e-09
1.76293e-06
0.00136149
0.0681343
0.17296
0.166755
1.78015e-98
1.81145e-98
1.87165e-98
1.92668e-98
1.97282e-98
2.01211e-98
2.04236e-98
2.05421e-98
1.99522e-98
1.63929e-98
1.16669e-98
1.14577e-98
1.07671e-98
1.4099e-98
8.73586e-98
1.05183e-97
1.17376e-97
1.30937e-97
1.49953e-97
2.45825e-97
2.04347e-97
1.58056e-97
1.23209e-97
3.82423e-97
7.08632e-93
2.11434e-88
6.30352e-84
1.87462e-79
5.5568e-75
1.63673e-70
4.77639e-66
1.37209e-61
3.84928e-57
1.04012e-52
2.65798e-48
6.25035e-44
1.3059e-39
2.31678e-35
3.31361e-31
3.61041e-27
2.83319e-23
1.5185e-19
5.30095e-16
1.15353e-12
1.53006e-09
1.33447e-06
0.00108074
0.0614302
0.169055
0.164579
3.23564e-99
3.32798e-99
3.80797e-99
3.97376e-99
4.05078e-99
4.09248e-99
4.1002e-99
4.10511e-99
4.08183e-99
4.25163e-99
2.34404e-98
2.51496e-98
2.65623e-98
3.50891e-98
7.10926e-98
8.29401e-98
9.16091e-98
9.91407e-98
8.20671e-98
9.06231e-98
7.38676e-98
6.33994e-98
5.52319e-98
2.25305e-97
5.03858e-93
1.50271e-88
4.47874e-84
1.33141e-79
3.94563e-75
1.1618e-70
3.39e-66
9.73671e-62
2.73186e-57
7.383e-53
1.88774e-48
4.44252e-44
9.29448e-40
1.65201e-35
2.36941e-31
2.59118e-27
2.04383e-23
1.10276e-19
3.88699e-16
8.56632e-13
1.15853e-09
1.0149e-06
0.00085348
0.0547316
0.164901
0.162457
5.6801e-96
6.15573e-95
2.47682e-94
4.32493e-94
3.57454e-94
3.0387e-94
1.77372e-94
9.23253e-95
6.18651e-95
5.12002e-95
4.76868e-95
4.66266e-95
4.6335e-95
4.63524e-95
4.64687e-95
4.66022e-95
4.67277e-95
4.68377e-95
4.69299e-95
4.70033e-95
4.70552e-95
4.70736e-95
4.70362e-95
4.69611e-95
1.72324e-93
4.97959e-89
1.47669e-84
4.36421e-80
1.28445e-75
3.75167e-71
1.08439e-66
3.08052e-62
8.53436e-58
2.27425e-53
5.72718e-49
1.32701e-44
2.73555e-40
4.80228e-36
6.83187e-32
7.45725e-28
5.91893e-24
3.24496e-20
1.17562e-16
2.69786e-13
3.84635e-10
3.41938e-07
0.000303654
0.0314402
0.145672
0.153193
2.16197e-95
3.97876e-95
9.35728e-94
3.50927e-93
3.53678e-93
3.52552e-93
1.80912e-93
5.23523e-94
2.09772e-94
1.27728e-94
1.05426e-94
9.92458e-95
9.76721e-95
9.74787e-95
9.76757e-95
9.79581e-95
9.82348e-95
9.84832e-95
9.86945e-95
9.88724e-95
9.90138e-95
9.91081e-95
9.91304e-95
9.91235e-95
2.50666e-93
7.15674e-89
2.12372e-84
6.28204e-80
1.85037e-75
5.41036e-71
1.56532e-66
4.45226e-62
1.23487e-57
3.29506e-53
8.3068e-49
1.92669e-44
3.97345e-40
6.97416e-36
9.90738e-32
1.0783e-27
8.51441e-24
4.63175e-20
1.65788e-16
3.74096e-13
5.19379e-10
4.51916e-07
0.000399507
0.037545
0.151659
0.156092
9.10166e-95
1.85599e-94
5.83576e-94
1.0548e-92
3.60305e-92
4.90722e-92
3.03035e-92
7.39581e-93
1.94558e-93
7.95382e-94
5.53689e-94
4.9398e-94
4.79429e-94
4.76832e-94
4.77373e-94
4.78602e-94
4.79849e-94
4.80999e-94
4.82012e-94
4.82903e-94
4.83694e-94
4.84377e-94
4.84905e-94
4.85289e-94
4.03488e-93
1.05562e-88
3.13385e-84
9.27598e-80
2.73378e-75
7.99978e-71
2.31614e-66
6.59401e-62
1.83043e-57
4.88879e-53
1.23329e-48
2.86193e-44
5.90121e-40
1.03479e-35
1.46658e-31
1.58985e-27
1.24736e-23
6.72338e-20
2.37409e-16
5.25937e-13
7.10706e-10
6.07514e-07
0.000533205
0.0443841
0.157182
0.158975
3.32451e-94
5.34412e-94
1.35925e-93
5.29666e-93
8.1694e-92
2.04185e-91
2.02362e-91
9.21203e-92
2.0315e-92
4.89834e-93
2.71439e-93
2.25168e-93
2.14488e-93
2.1241e-93
2.12461e-93
2.12985e-93
2.13555e-93
2.14089e-93
2.14577e-93
2.1503e-93
2.15488e-93
2.15983e-93
2.16496e-93
2.16929e-93
7.39565e-93
1.55411e-88
4.61602e-84
1.36722e-79
4.03194e-75
1.18081e-70
3.4213e-66
9.74941e-62
2.70853e-57
7.24035e-53
1.82756e-48
4.24229e-44
8.74384e-40
1.53128e-35
2.16421e-31
2.33553e-27
1.81955e-23
9.71151e-20
3.38153e-16
7.35492e-13
9.68639e-10
8.19036e-07
0.000710318
0.0516579
0.162284
0.161782
1.06122e-93
1.44432e-93
2.68302e-93
7.77442e-93
3.26264e-92
4.04673e-91
6.39887e-91
4.13541e-91
1.96141e-91
2.67774e-92
1.16932e-92
9.01195e-93
8.43567e-93
8.32568e-93
8.32511e-93
8.34812e-93
8.37242e-93
8.39624e-93
8.42022e-93
8.44425e-93
8.47364e-93
8.51473e-93
8.56553e-93
8.60738e-93
1.62144e-92
2.25387e-88
6.69802e-84
1.9853e-79
5.85854e-75
1.71718e-70
4.9792e-66
1.42018e-61
3.9486e-57
1.05637e-52
2.66763e-48
6.19323e-44
1.27565e-39
2.23038e-35
3.1423e-31
3.37427e-27
2.60945e-23
1.37877e-19
4.73456e-16
1.01171e-12
1.30151e-09
1.09537e-06
0.000931315
0.058848
0.166905
0.164415
2.9186e-93
3.37245e-93
4.97616e-93
1.02104e-92
3.24169e-92
1.32877e-91
1.18397e-90
1.33236e-90
5.7039e-91
1.08276e-91
4.03028e-92
2.95994e-92
2.75787e-92
2.7251e-92
2.72954e-92
2.74105e-92
2.75053e-92
2.7611e-92
2.77444e-92
2.78835e-92
2.80879e-92
2.84496e-92
2.8961e-92
2.93404e-92
4.02475e-92
3.1575e-88
9.3884e-84
2.78474e-79
8.22322e-75
2.41227e-70
7.00011e-66
1.99836e-61
5.5603e-57
1.48862e-52
3.76062e-48
8.73078e-44
1.79689e-39
3.1361e-35
4.40383e-31
4.70524e-27
3.61232e-23
1.8902e-19
6.40658e-16
1.34712e-12
1.69812e-09
1.43018e-06
0.0011832
0.0654225
0.170929
0.166766
6.27752e-93
6.64225e-93
7.80208e-93
1.18599e-92
2.87196e-92
8.5412e-92
2.55582e-91
1.43994e-90
7.79892e-91
4.3007e-91
1.03018e-91
7.38217e-92
7.11442e-92
7.1173e-92
7.18025e-92
7.25057e-92
7.28212e-92
7.33204e-92
7.41887e-92
7.5018e-92
7.63795e-92
7.93115e-92
8.40463e-92
8.70851e-92
1.03151e-91
4.15547e-88
1.23613e-83
3.66906e-79
1.08418e-74
3.18295e-70
9.24334e-66
2.64096e-61
7.35357e-57
1.97006e-52
4.97858e-48
1.15584e-43
2.37706e-39
4.14178e-35
5.79845e-31
6.16715e-27
4.70384e-23
2.44031e-19
8.17834e-16
1.69649e-12
2.10377e-09
1.78e-06
0.00143421
0.070941
0.174222
0.168727
1.24783e-92
1.28122e-92
1.36719e-92
1.59486e-92
2.25933e-92
4.45516e-92
7.82979e-92
1.05656e-91
7.4341e-92
1.58868e-91
1.23334e-91
1.15457e-91
1.36027e-91
1.40928e-91
1.45377e-91
1.50061e-91
1.50507e-91
1.52854e-91
1.58861e-91
1.63527e-91
1.70968e-91
1.90178e-91
2.27463e-91
2.47851e-91
2.76719e-91
5.07564e-88
1.51012e-83
4.48501e-79
1.32607e-74
3.89577e-70
1.13209e-65
3.23698e-61
9.01913e-57
2.41783e-52
6.11254e-48
1.41927e-43
2.91737e-39
5.07698e-35
7.09123e-31
7.51549e-27
5.70325e-23
2.93926e-19
9.76584e-16
2.00526e-12
2.45726e-09
2.09149e-06
0.00164882
0.0750811
0.176652
0.170196
1.92747e-92
1.95889e-92
2.0263e-92
2.15576e-92
2.42321e-92
2.96656e-92
3.60429e-92
3.91721e-92
3.59748e-92
3.16758e-92
2.8989e-92
3.34709e-92
1.74482e-91
1.89675e-91
2.09418e-91
2.4245e-91
2.37298e-91
2.46786e-91
2.8463e-91
3.09085e-91
3.38812e-91
4.24674e-91
6.44684e-91
7.48733e-91
8.19486e-91
5.67572e-88
1.68775e-83
5.01501e-79
1.48352e-74
4.36093e-70
1.26803e-65
3.62824e-61
1.01162e-56
2.71387e-52
6.86501e-48
1.5947e-43
3.27832e-39
5.7031e-35
7.9574e-31
8.41793e-27
6.36996e-23
3.27041e-19
1.0812e-15
2.20717e-12
2.68686e-09
2.30104e-06
0.00179347
0.0776673
0.178114
0.171093
2.23563e-92
2.26369e-92
2.31741e-92
2.3981e-92
2.51773e-92
2.68971e-92
2.86826e-92
2.97303e-92
2.95243e-92
2.87783e-92
2.86994e-92
3.04592e-92
3.77548e-92
4.29899e-92
6.65393e-92
3.29e-91
2.78764e-91
3.04817e-91
4.86933e-91
6.11165e-91
6.8758e-91
7.83724e-91
9.48354e-91
1.05917e-90
1.15706e-90
5.85439e-88
1.74042e-83
5.17332e-79
1.53097e-74
4.50257e-70
1.30995e-65
3.75057e-61
1.0465e-56
2.80974e-52
7.11385e-48
1.65405e-43
3.40336e-39
5.92536e-35
8.27244e-31
8.75403e-27
6.62413e-23
3.39953e-19
1.12302e-15
2.29029e-12
2.78555e-09
2.39625e-06
0.00185497
0.0785612
0.178539
0.171362
1.93322e-92
1.95593e-92
1.99705e-92
2.05011e-92
2.11331e-92
2.18433e-92
2.25307e-92
2.30486e-92
2.33265e-92
2.35773e-92
2.43254e-92
2.51745e-92
2.66814e-92
2.94884e-92
4.22154e-92
6.35104e-92
6.19119e-92
6.92653e-92
1.11454e-91
5.60447e-91
6.4662e-91
7.14571e-91
8.06996e-91
8.72466e-91
9.75429e-91
5.43677e-88
1.61691e-83
4.80743e-79
1.42319e-74
4.18739e-70
1.21893e-65
3.49233e-61
9.75287e-57
2.62131e-52
6.64546e-48
1.54756e-43
3.19024e-39
5.56634e-35
7.7905e-31
8.26664e-27
6.27447e-23
3.23089e-19
1.07137e-15
2.194e-12
2.68173e-09
2.31385e-06
0.00180841
0.0777506
0.177908
0.170985
1.27343e-92
1.28841e-92
1.31455e-92
1.34754e-92
1.38355e-92
1.42044e-92
1.45525e-92
1.48535e-92
1.51455e-92
1.57538e-92
1.84842e-92
1.9548e-92
2.02196e-92
2.12144e-92
2.39112e-92
2.62996e-92
2.53487e-92
2.5557e-92
2.68882e-92
4.8629e-92
5.6107e-92
6.32906e-92
8.4042e-92
4.88347e-91
5.14173e-91
4.58613e-88
1.36511e-83
4.05945e-79
1.20213e-74
3.53825e-70
1.03055e-65
2.9547e-61
8.25971e-57
2.22281e-52
5.64491e-48
1.31742e-43
2.72349e-39
4.76849e-35
6.70259e-31
7.1485e-27
5.4586e-23
2.8302e-19
9.46147e-16