# Probe 0 (0 0 -0.001)
# Time        0            
0.010225      (-4.07683e-07 4.4427e-08 -4.14723e-08)
0.01023       (-4.09703e-07 4.43901e-08 -4.21623e-08)
0.010235      (-4.13324e-07 4.43604e-08 -4.26614e-08)
0.01024       (-4.17194e-07 4.42924e-08 -4.3082e-08)
0.010245      (-4.21105e-07 4.42372e-08 -4.34842e-08)
0.01025       (-4.25087e-07 4.42083e-08 -4.38951e-08)
0.010255      (-4.29225e-07 4.42336e-08 -4.43003e-08)
0.01026       (-4.33667e-07 4.43595e-08 -4.47093e-08)
0.010265      (-4.38758e-07 4.46682e-08 -4.51165e-08)
0.01027       (-4.45344e-07 4.53187e-08 -4.5528e-08)
0.010275      (-4.55845e-07 4.65954e-08 -4.59328e-08)
0.01028       (-4.77476e-07 4.94593e-08 -4.62755e-08)
0.010285      (-5.22225e-07 6.3687e-08 -4.68731e-08)
